21
Properties=species:S:1:pos:R:3:forces:R:3 energy=-17592.018524364044 pbc="F F F"
C        2.13448881      -0.98436105      -0.19521790      -1.68161542      -0.32302344       1.39822049
C        0.76264381       0.95941395      -1.67992890      -2.02773727       1.21778553      -0.10541143
C        2.66034481      -0.40792605      -1.30730390       3.81288761      -1.08767809      -0.16479002
C        1.91031681       0.39396595      -2.14701990      -0.21295254       0.19248220       0.73513418
C       -3.03019019       1.49540495       0.71966210      -1.60910673      -1.31475444      -0.92032213
C        0.84942481      -0.55087105       0.28437510       0.27234792       0.77629945      -0.58363800
C        0.23844681       0.47350595      -0.40442190      -0.42276272       3.23195680      -1.90296669
O        0.89789581      -2.27643205       1.73006110      -0.96368406      -0.37826601       1.78590064
O       -2.38345219       0.41777895      -1.46285690       0.79741723       0.93793444       2.18313750
O       -0.47620119      -0.52908705       2.33925910       0.63704409      -1.86469250       0.81602463
C        0.39299181      -1.19023705       1.53798210       0.77342805      -0.10993222      -1.22667450
C       -2.12298519       0.95175995      -0.39770490       0.33082054       0.16979114       0.35376070
O       -0.80466619       1.28624595       0.11050910      -0.93353340      -2.15651371      -0.97729399
H       -0.49380319      -1.18679205       3.09597410      -0.43992135       1.06543820      -0.61119530
H        2.55473481      -1.80249705       0.39213110       0.64949740       0.32021817      -0.10847102
H        0.33068981       1.85571095      -2.34526390       0.27296448      -2.22114319       1.89740624
H        3.80379381      -0.49371905      -1.45620290      -1.81641117      -0.48882474      -0.39744487
H        2.23114081       0.55718595      -3.12414990       0.99393175       0.91561740      -1.90465497
H       -2.70893019       2.48465795       0.92692810       0.33676818       1.67047402      -0.01414351
H       -4.13048319       1.48216695       0.43126610       1.17047200      -0.04833416       0.24570111
H       -2.87414819       1.00320895       1.69948510       0.06014542      -0.50483484      -0.49827907
21
Properties=species:S:1:pos:R:3:forces:R:3 energy=-17592.428733723285 pbc="F F F"
C        1.91282187      -1.34639773      -0.31699904      -0.80033084      -0.69385061       1.94634651
C        1.34071087       1.45485027      -0.78646504      -0.66807551      -1.64831385      -0.42999674
C        2.73054987      -0.59958573      -1.09802504       0.38518785       1.56229102      -1.32980349
C        2.36478087       0.73857927      -1.46352404      -0.50486543      -0.37584947       1.38617965
C       -3.01398513       1.97782827       0.42068696      -0.27285025      -1.33690087       0.40294737
C        0.76835687      -0.72969673       0.21595296      -1.21251604       1.11251615      -0.00424593
C        0.44296187       0.63175927      -0.00015904       0.06007927       0.67151226       0.53997536
O       -1.44289113      -1.48546473       0.89958396       0.64569205       0.34942589      -0.10423449
O       -1.53074913       1.29142127      -1.45861104      -1.37982063       0.37040373       1.92245161
O        0.36843587      -2.67051973       1.71684596      -1.12748874       3.08208307      -2.08005668
C       -0.23586113      -1.54319973       0.92117696       0.41262635      -3.06473640       1.84561999
C       -1.78978013       1.41991127      -0.26829504       2.37363460      -0.84245614      -0.98103691
O       -0.74327913       1.12690327       0.68765196       0.42651692       0.21027822      -2.17024967
H       -0.50164413      -2.95204373       2.01212196      -0.19837638      -0.92346900       0.60376116
H        2.11360087      -2.36088373       0.06478396       0.17693217       0.21626022      -0.52184660
H        1.16670887       2.51262227      -1.05812104      -0.23765650      -0.48374433       0.33460353
H        3.64886787      -1.01938773      -1.46973604       0.49825786      -0.25720526      -0.53823348
H        2.88814087       1.20231527      -2.27787804       0.70785612       0.62667425      -0.27972814
H       -3.30188813       2.83899927      -0.15106804      -0.16392586       1.15646450      -0.20448845
H       -3.93261313       1.32524427       0.40054396       0.99596695      -0.04901696      -0.14652069
H       -2.76379413       2.16919727       1.47685396      -0.11684394       0.31763357      -0.19144389
21
Properties=species:S:1:pos:R:3:forces:R:3 energy=-17592.809253744577 pbc="F F F"
C        1.91537052      -1.23015443      -0.38161569       0.40483023      -0.21274983       0.90169879
C        0.93052952       0.96500357      -1.79778369       1.09569559       0.10657167      -1.40499677
C        2.70541152      -0.63704543      -1.43838569      -0.15809497      -2.03225619       1.99658800
C        2.17482152       0.36969057      -2.14823169       0.04247513       2.86621177      -2.26784084
C       -2.84186948       1.72941657       0.69858031      -1.32775798       0.85608294      -1.62619022
C        0.64553252      -0.75619543      -0.02516269       0.29687059       0.19233746      -0.84558965
C        0.17305652       0.36123357      -0.87275269      -1.94010237      -1.50867988       4.05163707
O        0.17032552      -2.10590443       2.10380231      -0.47183916       1.51802086      -2.91426606
O       -0.52755448       1.93249357       1.32618531       0.55765506       0.21223841       0.73305958
O       -1.49039148      -1.50851743       0.62700231      -0.13467332      -1.48199500       1.57491509
C       -0.19071548      -1.52614843       1.06623131       0.40605661      -0.03286232       0.35170480
C       -1.38200448       1.56175157       0.58642331       0.88903589      -1.12394010      -1.95971578
O       -1.10375548       0.87195057      -0.61638169      -0.34087239       0.39910969       0.24059409
H       -1.95758248      -2.16649043       1.23217831       0.63035356       1.15696385      -0.82554727
H        2.32019652      -2.04408543       0.26149931      -0.01116322       0.35371727      -0.53152662
H        0.53432752       1.86541657      -2.26183069       0.04681211       0.03674865      -0.33417937
H        3.71974652      -0.96901543      -1.64032269       0.12599988      -0.39771218      -0.04534162
H        2.76204452       0.82589657      -3.00110269      -0.53448247      -0.37798803       0.91388441
H       -3.05424448       2.44424857       1.45876931      -0.19859067       0.89069456       1.05268515
H       -3.32110048       2.11898057      -0.26301569       0.76128562      -0.59118186       0.88846869
H       -3.33969248       0.80739357       0.95942231      -0.13949370      -0.82933173       0.04995853
21
Properties=species:S:1:pos:R:3:forces:R:3 energy=-17592.20817405171 pbc="F F F"
C        2.04997081      -1.05126529      -0.37990413      -1.06396330      -1.50127032       1.29450360
C        0.84862481       1.10590071      -1.63686413       0.07448179       0.33520314      -1.44478532
C        2.46391281      -0.73983129      -1.65917513       1.52975477       1.35166058      -2.56938731
C        1.88021081       0.44146071      -2.34642813       0.23334301      -2.23834013       2.30135534
C       -3.04794219       1.26564271       0.81475487      -0.69350951      -2.16383392       2.14804763
C        0.97189581      -0.36912929       0.23092787      -0.14281490       0.03606312      -0.19835621
C        0.29745081       0.67783671      -0.45206613       0.86457403      -1.44790395       2.90831016
O        0.82180581      -2.07788229       2.00717787       1.25130097       1.75660492      -1.43505968
O       -2.21735119       0.21032471      -1.15677113       0.35525816       0.78194516       0.48488832
O       -0.63219419      -0.46743429       2.04598887      -0.22943270       0.37356048       0.44163804
C        0.50169281      -0.98472729       1.50435587      -2.03296252      -3.00963482       1.61714198
C       -2.00852519       0.89730771      -0.17790813       0.32199686      -0.91158806      -0.26273765
O       -0.77251019       1.26871671       0.26467387       1.05823977       0.51740340      -1.75636179
H       -0.87361419      -1.14549729       2.72893487       0.40315028       0.68379056      -0.64015960
H        2.26602381      -2.00592129       0.20027887       0.64785838       1.17668478      -0.92749102
H        0.38719781       1.99285671      -2.00451913      -0.40533381       0.91034346      -0.98040699
H        3.36879281      -1.30805629      -2.13351813      -1.84395507       0.92741730       0.68371784
H        2.15770281       0.70404571      -3.37680613       0.08110972       0.17485795       0.36103240
H       -3.87199919       1.70360271       0.28243087      -1.25064796      -0.37429887      -0.48007229
H       -3.26152419       0.18318671       1.36520287      -0.03879266       2.81108490      -1.42435446
H       -2.84937419       1.99582871       1.61499787       0.88034469      -0.18974967      -0.12146298
21
Properties=species:S:1:pos:R:3:forces:R:3 energy=-17592.174646702646 pbc="F F F"
C        1.86821394      -1.23831605      -0.55609658      -1.23142187      -0.85504057       1.14806952
C        1.74850494       1.40904395      -0.19489958      -2.78591324       1.73275752       0.97914576
C        2.94664794      -0.41460505      -0.88844058       1.15545101      -1.80120555      -1.43775088
C        2.94217494       0.99768395      -0.66277058       1.12443241      -2.22104632      -0.56032119
C       -2.90093306       2.14715295       0.60824942       1.16929177      -3.95071819       0.79574411
C        0.63889994      -0.70392605      -0.01926658      -0.20908239      -2.06489118       0.15126125
C        0.52231894       0.65095295      -0.01272058       1.04970028       2.24673690       0.18638989
O       -1.37067606      -1.12329905       1.27868242       2.70510726      -2.27850068      -1.42887283
O       -2.00274906       0.44592195      -0.98867858      -0.55175442       1.78574570       0.48036346
O       -0.25580306      -2.94900305       0.25022742       0.07098934       2.23750808       0.80128812
C       -0.42521606      -1.60497005       0.61438642      -1.77124339       1.16402045      -0.36821357
C       -1.80409706       1.32506895      -0.16153558      -0.62100366      -2.46923748       0.00081202
O       -0.56085406       1.44878395       0.37617842       0.86777239       0.84016943       0.89022289
H       -0.87588106      -3.42823505       0.80177142      -0.56324426      -0.38371199       0.27567138
H        1.81231594      -2.37414605      -0.51870658       0.92036136       1.36627634      -0.66552892
H        1.66057594       2.41176495       0.17713042      -0.26752448       1.09202655      -0.12947879
H        3.76828594      -0.95699005      -1.43974058      -0.31586780       0.75557019       0.78517323
H        3.85081394       1.63523195      -0.79579458      -0.85090030      -0.43617170       0.14212146
H       -2.55335806       3.00523995       1.12890242       0.50927041       1.04360304       0.58411271
H       -3.67112906       2.31366395      -0.06822558      -1.70889324       0.96949005      -1.80117840
H       -3.41430606       1.37574695       1.32909142       1.30447284       1.22661941      -0.82903120
21
Properties=species:S:1:pos:R:3:forces:R:3 energy=-17592.19643491216 pbc="F F F"
C        2.12360420      -1.08220959      -0.29276379      -1.88315940       2.07256272      -1.81519280
C        0.74887420       1.05811941      -1.59345979      -0.98125953       2.21848376      -0.86738397
C        2.52806920      -0.59949059      -1.58242979      -2.58196562       0.48017536       2.32050351
C        1.80041020       0.42231241      -2.22812179       0.75239059       1.40441239      -0.31634999
C       -3.13007680       1.70581341       0.47243021       1.54463947       0.16556742       0.32497723
C        0.92309820      -0.45261159       0.27343421       2.07827115      -3.58724405       2.56820621
C        0.30283520       0.58707041      -0.36611579      -1.64807007       0.58439941      -0.31582048
O        1.07924220      -2.26497859       2.04750221      -1.66199242       4.17929083      -1.77299480
O       -2.29570780       0.45096641      -1.39274979       0.51131316       0.51427104       1.52460247
O       -0.62113480      -0.76988859       2.31339121       1.66285141      -0.89417851      -1.05757488
C        0.51345620      -1.19322859       1.63499921       0.57370119      -2.48898321       0.06857857
C       -2.08626580       1.02943941      -0.33451579       0.57642026      -1.43099260      -2.92473670
O       -0.79981580       1.21990041       0.17541321      -1.00864098       0.30941524       1.24708886
H       -0.68150680      -1.57717959       2.87085821      -0.46908072       0.62691533       0.31643976
H        2.54029920      -1.95011559       0.20005221       0.36931919      -0.06765198       0.24043734
H        0.26715620       2.06434541      -1.97953479       0.88158231      -2.29071573       0.49523795
H        3.37509320      -0.90279159      -2.07079379       2.56293088      -1.45106791      -1.20509562
H        2.15903720       0.95150141      -3.14415579       0.02437308      -0.92161417       0.34155699
H       -3.87579580       2.15662941      -0.14076879      -0.35313818       1.17298640      -0.91736456
H       -3.71025880       1.03502541       1.03703121      -0.64695204      -1.75726607       1.19143712
H       -2.55740180       2.30513141       1.16107321      -0.30353375       1.16123432       0.55344777
21
Properties=species:S:1:pos:R:3:forces:R:3 energy=-17591.869755799642 pbc="F F F"
C        1.94373803      -1.12190609      -0.54240165       1.86386796       3.65644119      -4.75774207
C        0.99291603       1.35484991      -1.57269065      -0.81800645      -1.74870086       1.49969420
C        2.62563003      -0.53110909      -1.72131765      -1.94030547       0.90882720       2.81903592
C        2.12606503       0.72246391      -2.14591365      -0.43425565      -0.26019421      -0.66554467
C       -3.07824597       1.81977291       0.05110235       1.43806739      -0.03409294       1.65556072
C        0.89039703      -0.51656409       0.03505735      -2.22461856       2.03478939       0.57733054
C        0.36034303       0.70687191      -0.45276865       0.68904887       0.33233943      -0.98082644
O        0.17583703      -2.29128609       1.48834135       0.30567462      -0.12880412      -0.67963960
O       -2.29219397      -0.55632709       0.26895135       0.48947751       0.81779792      -1.19348187
O       -0.07219697      -0.21676609       2.17146635      -0.81652416      -0.19270065       2.56356973
C        0.27147203      -1.10362309       1.24360335      -0.01601059      -1.91678183       1.13769324
C       -2.06452297       0.59975491       0.01414335      -0.35100665       1.35574923       1.86971329
O       -0.77819697       1.23148991       0.14688335      -0.36325589      -0.02683928      -1.52662566
H       -0.36985097      -0.78607409       2.98284735       0.70887673       1.28906807      -2.18455975
H        2.12896003      -2.06208509      -0.28594365       1.48902359      -4.52567099       1.65274326
H        0.55817703       2.23286891      -2.04555365      -0.07843425       0.24126709       0.14045375
H        3.59125903      -0.87859909      -2.05085765       0.21016916      -0.63956572      -0.53911463
H        2.43179103       1.17466691      -3.10297065       0.63232436      -0.05677993       0.33203361
H       -3.65343697       1.68065291       1.04530035       0.08827475       0.03564199      -1.83774837
H       -2.39145197       2.69339391       0.27184735      -0.78963418      -0.58741474      -0.43878152
H       -3.64546297       2.04819391      -0.87819465      -0.08275308      -0.55437623       0.55623632
21
Properties=species:S:1:pos:R:3:forces:R:3 energy=-17592.632224756173 pbc="F F F"
C        1.78169664      -1.29213582      -0.61799304       0.84654399       1.70504393      -0.78841188
C        0.73353364       1.04915718      -1.64525904       0.23735970       1.92533981      -0.30081235
C        2.27256864      -0.75770682      -1.85033504      -0.61964242       0.33275844       0.78475636
C        1.76496064       0.47451918      -2.36644404      -0.59097399      -3.08026397       2.37842855
C       -3.07672536       1.53583818       0.54462796       0.47441321       0.41360771      -1.46879277
C        0.82908664      -0.59266982       0.15878396       0.52464564      -0.86497249      -1.03209669
C        0.31400164       0.55988918      -0.43717704      -1.32529732       0.94595399       2.16940008
O        1.17572564      -1.65040682       2.30576296       1.39989598      -1.47395489       0.57999353
O       -2.05920736      -0.09448282      -0.76926504      -0.32977794      -2.29940741      -1.65081768
O       -0.65391136      -0.44790182       1.94328096      -0.46048980      -0.08185802      -0.72446107
C        0.50311264      -1.03588682       1.54441996      -1.34904297       1.94389202      -0.08555636
C       -1.93371836       0.81796918      -0.04059004       2.05232097       1.74277089       1.31535000
O       -0.66524036       1.37225718       0.24812096      -0.25575659      -1.17554077      -1.30560484
H       -0.74349636      -0.54720682       2.88611996       0.12301433      -0.44510929       0.89789691
H        2.33718464      -2.10840582      -0.20708204       0.07459116      -0.96959259       0.49572289
H        0.37151464       2.06784418      -1.84690704      -0.22963370      -0.32807730      -0.54188748
H        3.11624764      -1.26714682      -2.31596404      -0.03950344      -0.12941594      -0.31515551
H        1.97366364       0.75522918      -3.33470104       1.04227549       1.22452384      -2.37841292
H       -3.71779736       0.80257718       0.95669096      -1.11645666      -0.79193281       0.89011850
H       -2.82697736       2.36229618       1.15123096       0.36049738       1.03730114       1.30278991
H       -3.51807036       1.92031918      -0.37310104      -0.81898303       0.36893370      -0.22244716
21
Properties=species:S:1:pos:R:3:forces:R:3 energy=-17592.263530733268 pbc="F F F"
C        1.92179653      -1.17710009      -0.29663644       0.25147760      -3.75132347       0.27258038
C        1.49775153       1.45259391      -0.50778244      -0.96650575       1.09577565       0.79163738
C        2.92208553      -0.39918609      -0.82230844       1.41219745      -0.26331291      -1.07329953
C        2.74979253       0.97421891      -0.89701744      -1.92416963       0.43642609       0.44277689
C       -2.62442547       2.21092491       0.69489456       3.29382331       1.00521836      -0.99576867
C        0.67656353      -0.72098809       0.09661056      -1.41178198      -1.13597524       1.58660620
C        0.43978853       0.59947591      -0.06316844       1.70958439       2.11766122       0.00022922
O       -1.49777847      -1.29623309       1.23754056       1.78001160      -0.70591052       0.21983816
O       -1.99120847       0.75432291      -1.28269544       0.02389610       0.43665860       0.67095275
O       -0.01886547      -2.87311809       0.39957856      -1.71899348      -1.41721690       2.10489440
C       -0.40542247      -1.61450109       0.79523056       0.02098017       0.20592969      -3.01135205
C       -1.79818047       1.28386491      -0.21682244      -0.27789755       0.67162758       0.01968260
O       -0.64319147       1.15391191       0.52359556      -0.47425714       0.91052647      -0.24334447
H       -0.63799147      -3.55641009       0.81996256       0.90003416       1.38722990      -0.77687461
H        2.04646353      -2.29158309      -0.16489344       0.33169554       1.17787211      -0.34261920
H        1.35864053       2.54615691      -0.32623744      -0.13135181      -0.63092318      -0.54708110
H        3.82721753      -0.84451009      -1.26043844      -0.04980293      -0.14633363       0.47218748
H        3.45619353       1.71530991      -1.19778044       1.05328745       0.27873792      -0.38997224
H       -2.43368447       1.67048791       1.61763056      -0.35405311       0.63620483       1.02406456
H       -2.17261747       3.30615991       0.62967556      -0.62297393      -2.25799670       0.48912202
H       -3.61990147       2.27141991       0.43788856      -2.84520047      -0.05087586      -0.71426018
21
Properties=species:S:1:pos:R:3:forces:R:3 energy=-17592.489868827997 pbc="F F F"
C        2.01414836      -1.21391702      -0.26192668      -1.79945671       0.69313778       0.23714536
C        1.39188436       1.29709398      -1.02379968      -3.15914166       0.98654189       0.80972007
C        2.87654036      -0.54993702      -1.13818268      -0.15570877      -1.13912125       1.17260818
C        2.51489536       0.70905598      -1.51073268       2.26350230       1.81587795      -1.58618755
C       -2.99773364       1.88914198       0.49786632      -3.03200990       0.02743864       0.45538796
C        0.78313736      -0.61994902       0.24356532       0.75346184      -1.42666196      -0.82266959
C        0.42033036       0.69237498      -0.21191968       0.28968394      -1.47531487       1.76801301
O       -1.08078964      -0.89475602       1.68292232       2.06608019      -2.54217793      -1.07526407
O       -2.07697364       0.65738898      -1.29641868       0.35704092      -0.88144927      -0.36014801
O        0.16552436      -2.82090302       1.22705432      -1.72466350       0.31923218       0.63732018
C       -0.12205064      -1.48084102       1.12289032      -2.24544216       2.28055890       1.03708996
C       -1.90012564       1.19118998      -0.23757168      -0.70456691       1.26131082      -0.51094828
O       -0.71727364       1.41274098       0.35279432       2.97359022      -0.92045842      -0.76168506
H       -0.62297664      -3.26975902       1.70818532       1.75190143       1.38057348      -0.95335136
H        2.17320636      -2.24471202      -0.02048468       0.32325287      -0.77008851       0.49021315
H        1.08125336       2.27557898      -1.26687368       0.13473687       1.70733887      -0.77410819
H        3.84621936      -0.93216902      -1.41720268       0.27581356      -0.57796355      -0.28544745
H        3.23106936       1.30777198      -2.14655668      -0.87845153      -0.45061339       0.50584583
H       -3.61588064       2.54355798      -0.19724668       0.82997498      -0.74973468       0.17010904
H       -3.77146864       1.06485898       0.79639332       1.33567449       1.31901638      -0.04395580
H       -2.75699264       2.57840898       1.33930732       0.34472753      -0.85744304      -0.10968738
21
Properties=species:S:1:pos:R:3:forces:R:3 energy=-17591.837658606313 pbc="F F F"
C        1.94713170      -1.04557808      -0.33334495      -1.05261231      -0.24029770      -0.02498633
C        0.95079870       1.14532992      -1.60147495      -0.30131430       1.77597084      -1.98054738
C        2.67148970      -0.49288408      -1.37732995       1.12127097       0.77623595      -0.37564455
C        2.17264370       0.65219592      -2.09106595      -1.14904476      -2.51104680       1.68219899
C       -3.25805630       1.31241792       0.62585305       0.62608645       0.39472461      -1.82923780
C        0.69967770      -0.55880208       0.09367305       1.18119002      -0.48475070       0.93301384
C        0.25133670       0.60095792      -0.56555595      -1.37619012       0.48575442       3.86309648
O        0.47788670      -2.39259708       1.79524505       0.42668154       1.12396262      -0.98068016
O       -2.12491430       0.10116892      -1.19359795      -0.13274316       2.12698491       2.76381881
O       -0.22437230      -0.25778408       2.33786805       0.38385247      -1.66601359      -0.52140984
C        0.35395870      -1.23819608       1.44498105      -2.69672050       1.66816029       1.86370121
C       -2.02501530       0.89984592      -0.23236495      -0.52593340      -1.15154721      -2.32548691
O       -0.79235430       1.38282092       0.13533005      -0.02690313      -1.24878989      -1.51507972
H       -0.53293230      -0.68849108       3.19662105       0.85203679       0.17987594      -1.69792025
H        2.21842570      -1.94720608       0.19237505       0.93067854      -0.39029259       0.09536790
H        0.50264770       2.03475992      -2.09839195       0.18484894      -0.46336160       0.27522219
H        3.70630970      -0.88021308      -1.42813695      -0.34479080       0.08503247      -0.91727891
H        2.41413470       0.87210392      -3.10886995       1.13008298       0.77283897      -0.57195288
H       -3.29261930       2.16710592       1.29587905       0.80865117       0.54270331       0.00535460
H       -4.17093230       1.31726992       0.01321805       0.24817461       0.19523304      -0.47577029
H       -3.38621230       0.45152092       1.20073705      -0.28730202      -1.97137729       1.73422102
21
Properties=species:S:1:pos:R:3:forces:R:3 energy=-17592.014862323616 pbc="F F F"
C        1.80503845      -1.27140311      -0.45853445       0.48575642       1.40670119      -0.70893981
C        1.01749445       1.17740489      -1.52622245       1.92344574      -0.99783152      -2.62584424
C        2.60127045      -0.73516811      -1.48344045      -2.20832684       1.80229266      -0.24991554
C        2.18578045       0.51402089      -2.09025945      -1.99216557      -0.14256910      -0.11481603
C       -2.98073955       1.22660089       0.97092255      -1.42934094       1.02690579       0.20922658
C        0.75251945      -0.49221811       0.12372255       1.44843429      -2.38561564       0.57189547
C        0.28436545       0.61750589      -0.50155345       1.10631144       1.55888275      -0.44706941
O        0.20814445      -2.21511611       1.56298355       0.00650802      -1.98589269       1.46799722
O       -2.20856255       0.08195889      -1.02430145      -1.94951396      -3.42805109      -3.89368053
O       -0.10898655      -0.04436011       2.33315855       0.84388171      -0.92833763      -1.19487026
C        0.29726345      -1.04573411       1.40986155      -1.91816302       2.39054799       0.63440467
C       -2.03674855       0.85211989      -0.18778745       1.88183461       2.18073357       4.26077968
O       -0.73007655       1.37002589      -0.05400245      -2.24861062       1.59534427       1.92515868
H       -0.23278055      -0.41475111       3.22144055      -0.02060543      -0.51953141      -0.28794744
H        2.04372745      -2.29158211      -0.18495145      -0.11607070      -0.16475442       0.89695827
H        0.56087145       2.02811889      -2.03966545       0.23946272       0.14731840      -0.02085912
H        3.39249145      -1.33423011      -1.84742845       1.11821135      -0.62067537      -0.81893903
H        2.40607245       0.81807689      -3.17219645       0.65602395      -0.20871779       1.70259418
H       -2.50966455       1.17137389       1.97928855       0.30461134       0.14414481      -0.71119117
H       -3.47297455       2.26264789       0.86842455       1.01085727      -1.07704730      -0.06411081
H       -3.87223155       0.53682889       1.02467555       0.85745824       0.20615254      -0.53083136
21
Properties=species:S:1:pos:R:3:forces:R:3 energy=-17592.6299981037 pbc="F F F"
C        1.95600023      -1.23032944      -0.43379673       1.88147400       0.98727457      -1.46715781
C        0.74947223       1.12539156      -1.34952273       0.32540345      -1.57973018       0.54705042
C        2.41231623      -0.64966144      -1.66756873      -1.99010856       0.36605849       2.56926297
C        1.83478323       0.54506456      -2.05717473       0.51276303       0.26209170      -1.27247205
C       -3.16633777       1.90837456       0.30881827       0.00832557      -0.42252060       0.82359927
C        0.93372423      -0.67768744       0.28192227      -2.62402254       2.27710438       0.62431792
C        0.23707923       0.54421856      -0.17445173       0.48953474      -1.16397048      -1.76606994
O        1.46487823      -1.80802144       2.28830327      -0.66918014      -0.34328861      -0.04376848
O       -2.20776477       0.51816056      -1.48525073      -0.40062170       0.13403415       1.10085444
O       -0.69975377      -1.09515944       1.96665727       1.02993540       0.14303379      -1.37367314
C        0.61920823      -1.28593044       1.59488827      -0.51638385       0.33068848       1.19688207
C       -2.13188177       1.03501956      -0.39388073       1.54662839       0.93918900      -0.43647666
O       -0.94972377       1.11702456       0.33658227       0.81770497      -0.75656336       0.53703597
H       -0.89127577      -1.66008744       2.70667527       0.15619378      -0.51394407       0.98248306
H        2.63122523      -1.93010344       0.04211227      -0.30798640      -0.86373741       0.18841615
H        0.17699023       1.86460256      -1.84426773      -0.52509706       1.42122488      -0.34971616
H        3.18413923      -1.13205644      -2.17709773       1.57932270      -0.68621098      -1.17165040
H        2.25280823       0.99170456      -3.00053273      -0.72694569      -0.00191186       0.75363943
H       -3.34699377       2.80225056      -0.28967373       0.23526923       0.39955376      -0.26813901
H       -4.07088977       1.32164856       0.18782427      -0.84446786      -0.16446690       0.42709475
H       -2.97890277       2.21500256       1.40254227       0.02225855      -0.76390873      -1.60151279
21
Properties=species:S:1:pos:R:3:forces:R:3 energy=-17592.14771842099 pbc="F F F"
C        2.05847741      -1.03314539      -0.30902819       0.88608385       0.50575751      -0.45825651