21
Properties=species:S:1:pos:R:3:forces:R:3 energy=-17591.804254878407 pbc="F F F"
C        1.50840490      -1.53990372      -0.86209562       1.61681206       2.25309882       0.51629046
C        0.68112490       1.00558528      -1.71404162       1.29718909      -2.23094374      -0.15583719
C        2.37639390      -0.74040572      -1.60925462       0.89965143      -0.66738560      -0.54139106
C        1.95213690       0.46497528      -2.08248362      -2.82033597       1.12807461       0.11083732
C       -2.28497610       2.68695528       0.84970438      -3.22487600      -1.42619744      -0.12739497
C        0.37041490      -0.95590872      -0.30338162      -0.25794095      -0.66453399      -1.12816916
C       -0.09244510       0.28979228      -0.82478362       0.11450197      -0.37013425       2.01688964
O       -1.40431110      -1.34651972       1.22993138       1.84167049      -1.74727345      -1.14092375
O       -0.22859710       1.74588128       1.60566238      -0.37587273       0.13987363      -0.54901423
O        0.53921190      -2.59421772       1.41452738      -1.16691137      -0.54072352      -0.88796874
C       -0.31525310      -1.71044872       0.75172438      -1.84062687       1.53930442       3.45339750
C       -1.12349410       1.83875028       0.81146538       2.95550786      -2.56296168      -1.56091835
O       -1.22574210       0.89677328      -0.34626762      -0.88108913       1.65963852       1.10924874
H        0.00511590      -3.27156772       1.89741238       0.19684044       1.05421273      -0.31483156
H        2.12756090      -2.25556672      -0.40535862      -0.34214445      -2.29733064       1.02656355
H        0.18155290       1.81733928      -2.16632262      -0.07524212       1.59593638      -0.66087006
H        3.42392290      -1.05819772      -1.79764062      -0.63748784      -0.11476015      -0.16578605
H        2.44571790       0.96599928      -2.84263862       1.73682419       1.39087250      -1.47603756
H       -2.29922510       3.30518428       1.71282538       0.15729320       0.58672845       1.33675613
H       -2.58536210       3.31415728       0.01056838       0.38595014      -0.28362708      -0.72379588
H       -3.06954710       1.83626328       0.96763938       0.42028654       1.55813147      -0.13704477
21
Properties=species:S:1:pos:R:3:forces:R:3 energy=-17592.161700459037 pbc="F F F"
C        1.96372442      -1.24460069      -0.33864274      -3.46821864      -3.99475619       3.70720079
C        1.36719642       1.39010431      -0.49315974      -0.89180302       1.47920650       0.35333060
C        2.91838142      -0.48236769      -0.81113774       2.51565639       3.30436009      -2.51189309
C        2.56480742       0.87067531      -0.95718574       0.41346929       1.29412309      -0.76502797
C       -2.87991358       2.19095331       0.44437726       2.30013351      -1.56438812       0.51889365
C        0.70749542      -0.77347169       0.21578626       0.81965223       0.32707681      -0.72129117
C        0.46356942       0.59117731       0.25331426      -1.76500640      -0.17251825      -0.74187717
O       -1.11397758      -1.35334569       1.57600626       0.15067351      -1.68561929      -1.50592086
O       -1.60872358       1.17786931      -1.39798874       0.39500355       0.11846223      -0.56578538
O       -0.22128758      -2.90085469       0.08896926      -1.66572723      -1.51885342       0.81102520
C       -0.36664158      -1.69540569       0.66157926       0.53995612       0.91380016       2.45304301
C       -1.69499958       1.46991931      -0.24244774      -1.26893073       0.19790143       1.54454320
O       -0.83894558       1.05944031       0.75986426       2.79710282       0.44989315      -1.53017044
H       -0.84778658      -3.54461569       0.55259526       0.93645772       1.26482978      -0.76082692
H        2.15350042      -2.27743269      -0.01624474       0.00745886      -0.28904759      -0.90924199
H        1.05616542       2.42312231      -0.77774074       0.40521324      -0.51194077       0.45286754
H        3.84195842      -0.74501169      -1.35882974      -0.20794347      -0.66776537       0.82476945
H        3.23475342       1.52531431      -1.54456874      -0.26036353      -0.04887258       0.26803529
H       -3.08056658       3.13971631       0.07720226      -0.49337064       2.18677532      -1.56265736
H       -3.72203058       1.55810131       0.37799926      -1.51970389      -0.94356509      -0.28650111
H       -2.65159758       2.34239731       1.48481926       0.26029032      -0.13910191       0.92748473
21
Properties=species:S:1:pos:R:3:forces:R:3 energy=-17592.849062277353 pbc="F F F"
C        1.93718542      -1.19318978      -0.52128522      -1.04332718      -0.54710869       0.99108814
C        0.82636142       1.21400422      -1.40954522       1.63385372      -1.91319803      -0.02492776
C        2.42277742      -0.58328578      -1.66396822      -0.46228592       0.97136876      -0.70639148
C        1.89865842       0.67313422      -2.13218722      -0.04024755      -1.76590701       0.67807477
C       -3.13054558       2.09707422       0.15457978      -0.01983301       0.35930331      -0.09774369
C        0.81225442      -0.69180078       0.21948578       0.53841998       1.93424313      -1.23382299
C        0.29563642       0.53235122      -0.29689522      -1.04074978      -0.10740300      -0.17710061
O        1.40407242      -1.99850678       2.08339578      -2.06368737       1.03512199      -0.44785982
O       -2.37632058       0.06258122      -0.86842822      -0.21644113      -0.65140253      -0.85506181
O       -0.67943258      -1.01494278       2.07964978      -0.02880975      -1.14994095       1.09065637
C        0.53085942      -1.29549578       1.55252778       1.51531825      -1.43198970       0.63854232
C       -2.09045558       1.04925722      -0.25977622      -0.09842992      -0.87829037       0.66362749
O       -0.80140758       1.25243422       0.19969578      -0.44556294       0.92277262       1.36376561
H       -0.79630158      -1.61292778       2.88824878       0.48989132       1.14617595      -1.37384257
H        2.29165542      -2.17113378      -0.17336522       0.37269902       0.21986487      -0.12475541
H        0.41869842       2.15416822      -1.62113422      -0.87300389       1.60088135      -0.61875739
H        3.18263242      -1.08143078      -2.25574422       0.37718498      -0.14693513      -0.08331787
H        2.26080142       1.01333222      -3.10808522      -0.03249427       0.58170143       0.25304722
H       -3.20089858       2.22337922       1.26860378      -0.00327800      -0.32895568      -0.71238807
H       -2.78551058       3.05923522      -0.23857922       0.14109885       0.42315897       0.01030254
H       -4.14521158       1.91407122      -0.33841422       1.29968460      -0.27346127       0.76686500
21
Properties=species:S:1:pos:R:3:forces:R:3 energy=-17592.72310490305 pbc="F F F"
C        2.02913453      -0.93697360      -0.19592738       0.67613044      -3.25105934       1.82571501
C        0.89618753       1.17643540      -1.50166738       1.06728275       0.59180202      -0.53173873
C        2.74414553      -0.40909760      -1.23830538      -1.37307589       0.78155174      -1.04090805
C        2.13549153       0.60990740      -1.93289738      -0.81256796       2.88858862      -1.16785181
C       -3.10197147       1.63688840       0.12350962      -0.37406551       2.16203119       0.90986700
C        0.83437653      -0.42493760       0.31689162       0.40127048      -0.88230451      -0.94443351
C        0.28501853       0.66037740      -0.38395338      -0.59442522      -0.74869134       1.07777173
O       -0.66827347      -0.52319560       2.16469262       0.51854053      -1.56624240      -1.11089242
O       -2.14665447      -0.16818760      -1.15245338      -0.13924317       0.74272598       0.22957942
O        0.79547553      -2.26017060       1.88101162      -1.67874396       0.45706472       0.18532709
C        0.16239553      -1.10351860       1.46187362       0.37603522       1.51335691       2.31145469
C       -2.06597247       0.79893140      -0.42598238       1.49493915      -2.12502102      -0.87833241
O       -0.86686247       1.21211340       0.10986662      -0.43861960       1.10148451      -0.30298358
H        0.25546153      -2.51331260       2.67856962       0.72893204       0.23787035      -0.83611567
H        2.40999153      -1.93240560       0.19643462      -0.45641403       1.26687641       0.00653875
H        0.45430453       2.09310040      -1.93723538       0.23494185      -0.54407463      -0.16746279
H        3.52274853      -0.88497660      -1.75725338       1.75522294      -0.97930240      -0.07730819
H        2.62995253       1.11495340      -2.80683738      -0.34414283      -0.64970310       0.58001890
H       -4.10157547       1.49363140      -0.13639338      -1.99922794      -1.36174321      -0.86783024
H       -3.03586147       1.63854840       1.19494162       0.18623791      -0.24024138       1.10613871
H       -2.98765947       2.68758140      -0.12823738       0.77099281       0.60503089      -0.30655389
21
Properties=species:S:1:pos:R:3:forces:R:3 energy=-17592.313626798492 pbc="F F F"
C        1.83527672      -1.14646000      -0.50009735       1.74360991      -1.61287562      -0.98288769
C        1.19452572       1.46047000      -1.14252835      -1.34602772      -0.79917418       1.09064874
C        2.55726572      -0.53987100      -1.56266235      -0.91199054       0.87546624       1.73737463
C        2.25689672       0.84265200      -1.76566735       1.00783127      -2.76598936      -1.80469441
C       -3.18251928       1.33355900       0.44800565       1.89297083      -0.37439145       1.02997697
C        0.82870672      -0.55888600       0.21687765      -1.67449334       1.63829281       0.90659377
C        0.39686972       0.76709900      -0.23456035       0.00104309      -1.59837022       0.59052859
O        0.04609472      -2.53092500       1.49475165       0.91156407       1.60231713      -0.25588617
O       -2.13736028       0.26374800      -1.40406735       0.39658356      -1.19129744      -0.98071495
O       -0.06551328      -0.51316500       2.47658065       0.98757499       0.61318694      -1.68573064
C        0.27949272      -1.32365200       1.44144465      -1.10495815      -0.40370295      -1.37213479
C       -2.01957628       0.81147300      -0.35737635      -0.10489966       0.82419418       0.21487122
O       -0.83441428       1.32867500       0.13297165       0.91046059      -0.25999831       1.09481026
H       -0.42698628      -1.19254300       3.01385965      -0.96457902      -0.91553634       1.88206417
H        2.06539872      -2.20023000      -0.28926635       0.00200153       0.10511288       0.30120076
H        0.81574072       2.42112700      -1.37356035      -0.15769471       1.33786264      -0.76892173
H        3.34973472      -1.14479200      -2.04663835      -0.43661991       0.67774412      -0.17051965
H        2.58538872       1.14815600      -2.74492135       0.77491186       1.37272030      -0.24865749
H       -4.03947528       0.71781900       0.33323565      -1.00786359      -1.06672677      -0.06111527
H       -2.87123828       1.45982000       1.51250465      -0.45763984       0.33875193      -0.59420960
H       -3.38304328       2.22643900      -0.10321135      -0.46178523       1.60241348       0.07740330
21
Properties=species:S:1:pos:R:3:forces:R:3 energy=-17592.464054006778 pbc="F F F"
C        2.01561874      -1.06178524      -0.33140073      -2.84012806       0.94389812       1.66554095
C        0.79167974       1.07555576      -1.60708173      -0.00385629      -0.44042852       0.27872417
C        2.50244874      -0.61867324      -1.52825573       0.76338478       0.01513414      -0.49167224
C        1.88514774       0.46731776      -2.16508973       0.36285984      -0.26889932      -0.21696164
C       -3.17924226       1.26383176       0.16581427      -1.44102418       2.94489771       0.28980214
C        0.78201074      -0.51245024       0.31454527       1.91053829       0.39241430      -1.52425126
C        0.25300674       0.56868276      -0.39407573      -0.94519463       1.41013448      -0.49946718
O       -0.54731426      -0.31472324       2.39134127      -1.04689649       0.97572355      -1.43034066
O       -2.02062226      -0.20832724      -1.30522873       0.16674072       1.45786962       0.13084188
O        1.05524874      -1.76818624       2.39508427       1.08757662       0.27609541      -3.47870576
C        0.30671574      -0.82165524       1.69711227       1.20739339      -1.19372287       2.11384298
C       -2.03120426       0.76896476      -0.57181273       0.53260754      -3.00222888      -0.39940350
O       -0.89843226       1.29189476       0.00590527       0.66471466      -0.66708758      -0.28330675
H        0.54225774      -1.76948924       3.17429627      -0.80804635      -0.29719061       2.08295721
H        2.51454374      -1.83976124       0.15552227       0.85202569      -1.53970101       1.11972106
H        0.37510474       1.92654176      -2.14499073      -0.49008002       0.09356778       0.35749214
H        3.42947574      -1.05390224      -1.95073873      -0.47779678       0.05016489       0.19119820
H        2.26667774       0.80343576      -3.11146673       0.30256680       0.37969832      -0.64290240
H       -4.18331126       1.27176076      -0.22920773      -0.46936410      -1.06729091      -1.13088675
H       -3.19670026       0.70605376       1.08441527       0.12399684      -0.10894535       1.09812278
H       -3.08609826       2.36344076       0.31042427       0.54798174      -0.35410327       0.76965465
21
Properties=species:S:1:pos:R:3:forces:R:3 energy=-17591.91145653085 pbc="F F F"
C        1.43502333      -1.61465823      -1.02070373      -0.05562716      -0.66143782      -1.19899365
C        1.00062733       1.07982477      -1.11011873      -1.14657799       0.88939998      -0.84632757
C        2.29197833      -0.77230923      -1.78409373       0.62353878      -1.64443810      -0.05912013
C        2.08131933       0.61609177      -1.78938573      -0.86931136      -4.06530111       1.29588315
C       -2.54280667       2.12411577       1.25118527      -1.32712221       1.41354810      -1.83087929
C        0.31374033      -1.12555223      -0.30802873       0.64281701       0.65144821      -0.56094945
C        0.07466233       0.25772877      -0.51076773      -0.99259521      -0.46882451       2.50378396
O       -1.15688067      -1.35800423       1.58426527       0.26154119      -0.86754835      -0.42391749
O       -0.25116667       2.91078577       0.30749927      -2.52039114      -0.40507573       0.72623661
O        0.16535333      -3.07122723       0.99072627       0.38043357      -1.40801134       0.21999639
C       -0.36326467      -1.86912423       0.81136827      -0.49549280       1.70898686       0.50838572
C       -1.16566467       2.11581977       0.47460727       0.55022151      -0.91595900       0.80074611
O       -1.04595167       0.74862477       0.16602927       0.22974921       1.12177717      -0.99521397
H       -0.16473167      -3.41954423       1.84328827      -0.07957720       0.27626060      -0.40935982
H        1.54751933      -2.71096123      -1.19866473       0.17704596       0.61695801       0.78230593
H        0.79610833       2.11058077      -1.25172973      -0.25022858       0.94548863       0.24253295
H        3.11662033      -1.34152123      -2.31697273      -0.75208680       1.10836461       0.37450563
H        2.64030533       1.33022177      -2.21893373       2.77981249       2.43301804      -2.13205505
H       -2.35800567       2.19553077       2.34363427      -0.02853444      -1.16572690      -0.25927699
H       -3.21066367       3.03256177       1.12733627       1.22806912       0.00316542      -0.41315254
H       -3.26084567       1.35315377       0.74969227       1.64431605       0.43390722       1.67486950
21
Properties=species:S:1:pos:R:3:forces:R:3 energy=-17592.21912418248 pbc="F F F"
C        1.81181394      -1.34458804      -0.45670639      -0.54158854      -1.32431102       1.58266447
C        1.57217394       1.43438696      -0.67674739      -1.69846681      -2.21725439       1.62949938
C        2.87927994      -0.58501604      -0.72740339       2.66712604      -1.31699144      -1.90090835
C        2.72639894       0.75055196      -0.95759239       1.53103477       2.40967351      -0.99399178
C       -2.89976906       1.34559096       0.84894261      -0.55412384      -1.96134610      -2.90728396
C        0.62934294      -0.76286704      -0.05032139      -0.56232813       1.01272828       0.55563108
C        0.54922194       0.60791696      -0.06561839       0.57933172       2.65858135      -1.02661963
O       -1.60628706      -1.11577604       0.55530161      -1.02507055      -0.67964623       0.94629813
O       -1.80233706       1.36798496      -1.35189539       0.71977808      -0.02104836       3.26441487
O        0.03108494      -2.55867504       1.23658961       0.80992195       0.51995782      -0.01755137
C       -0.45700406      -1.44197504       0.66460061       0.83602579      -1.26969220      -1.65897773
C       -1.71935706       1.34154696      -0.12115339       0.83205022       0.04942243      -0.85610199
O       -0.47954706       1.21637896       0.62128161      -1.73614150       0.66684576      -1.33983007
H       -0.62877706      -2.92634604       1.79479361      -1.41574357      -0.80571362       0.81596820
H        2.01945994      -2.34928104      -0.21811539      -0.22839638      -1.82136297      -0.05556342
H        1.48316994       2.49587596      -0.69858739      -0.19853412       0.96932369      -0.19259416
H        3.82626094      -1.12314404      -0.97003339      -0.39136650       0.65304125       0.22967856
H        3.57720694       1.29193496      -1.37210739       0.20640577       0.27783871       0.04538507
H       -3.70181606       1.35957796       0.06186261      -0.17088015      -0.24083962       0.98617161
H       -2.90771106       0.39149796       1.41629461      -0.02325044       0.43718595      -0.34289213
H       -3.08381606       2.13915396       1.50297361       0.36421620       2.00360721       1.23660321
21
Properties=species:S:1:pos:R:3:forces:R:3 energy=-17592.026362065342 pbc="F F F"
C        1.97611613      -1.13475064      -0.38585873       2.17795844      -1.05831203      -1.32651669
C        0.66708513       1.03792336      -1.61959673       0.68473151       2.00511209      -2.48770853
C        2.48161713      -0.66755564      -1.63278773      -2.58374192       2.84128938       1.47391898
C        1.83002713       0.50726736      -2.17148273       1.55269713      -2.19039192      -2.97275304
C       -2.94089187       1.86395636       0.48068927       1.04472116       1.04098913      -0.14340970
C        0.84297913      -0.53832764       0.21391227       0.61993547      -0.37075041       1.29622738
C        0.28296813       0.58400736      -0.39070573      -0.24609180       0.07139450       0.26786068
O        0.83471813      -2.23870564       1.89530027       1.29208155      -0.58865866       0.00811656
O       -2.12868087       0.05896036      -0.88283673       0.16206842       2.01459880       1.13202907
O       -0.61075387      -0.65305264       2.13574327      -1.61073512       4.54816407      -1.49002974
C        0.40907313      -1.17276664       1.52257327       0.16535921      -2.27147896      -0.62727672
C       -1.89343487       1.05582236      -0.17303573      -2.73852580      -3.64184730      -2.54236232
O       -0.69473887       1.39181236       0.14635427       2.24126197       0.92974506       1.99581969
H       -1.01143987      -1.08784364       2.85662027       0.08845141      -1.74104476       1.35157000
H        2.59611613      -1.99449164       0.02680327      -1.44493320       0.91296788       0.20172867
H        0.09032013       1.92511436      -2.10974873       1.13983558      -1.63037471       0.92518519
H        3.37592713      -0.92124864      -2.15629273       0.83559336      -1.05481602      -0.02069820
H        2.25053013       0.67661936      -3.25589073      -1.15300352       0.71080523       1.99437542
H       -3.57215187       1.08690136       0.78825527      -1.67452411      -1.11990218       1.34563053
H       -2.48468787       2.45999336       1.28829527      -0.49620925       0.03571217      -0.03350537
H       -3.51524687       2.44059836      -0.23685273      -0.05693047       0.55679866      -0.34820187
21
Properties=species:S:1:pos:R:3:forces:R:3 energy=-17592.303505914933 pbc="F F F"
C        1.90667960      -1.23685634      -0.30868660       0.37424056       0.76197367       0.39429436
C        1.39464660       1.49666566      -1.02842060       2.36942585      -2.21423647      -0.56312686
C        2.92765160      -0.45015834      -0.96341660      -2.74141639      -1.04274909       1.49064959
C        2.62888460       0.85659666      -1.25007660       2.27503188       2.36790269      -1.61510469
C       -2.93107740       1.61344966       0.59974840      -2.41853213       1.30251801       0.34281250
C        0.71392660      -0.54767934       0.02373740       1.02106617      -0.92239678      -1.06762152
C        0.44458160       0.75915366      -0.43955660      -2.08974027      -1.20115894       1.40885178
O       -0.66756540      -0.58717034       1.93341140      -0.46795521       0.41498672      -0.75240509
O       -2.18626240      -0.16505734      -0.86368360      -0.77641947      -1.19776871      -0.69736520
O       -0.13179140      -2.46173634       1.01758940      -2.27450720      -5.18437559       0.74308836
C       -0.13238140      -1.19782334       1.00794140      -0.69446990       3.97316362       2.47056648
C       -2.00413840       0.81720666      -0.22741960       2.66897235       0.65057214       0.54880826
O       -0.73059140       1.40624766      -0.15405560      -0.79594988       0.65206092       0.42477909
H       -0.88935740      -2.67653634       1.68953640       2.13835921       0.27741934      -1.36333071
H        2.02866660      -2.27841634       0.12998340       0.16827376       1.26369855      -0.85041001
H        1.17660360       2.42992066      -1.38352760      -0.45503865       2.91578264      -0.88627409
H        3.89844660      -0.79467034      -1.12016360       1.85039253      -0.97263638      -0.45586579
H        3.49437060       1.46455466      -1.72346960      -1.46404526      -0.76336953       0.66833369
H       -3.59061940       2.28967466      -0.10121960       1.05714419      -1.15800292       1.36096172
H       -3.57298440       0.92388566       1.18838340      -0.23982903      -0.06992964      -0.73448328
H       -2.49036440       2.20134166       1.43105040       0.49499686       0.14654574      -0.86715857
21
Properties=species:S:1:pos:R:3:forces:R:3 energy=-17592.11344919974 pbc="F F F"
C        1.82812106      -1.17639270      -0.39506461      -0.94114459      -0.40543040      -0.53378295
C        1.38718106       1.48604430      -1.21178861      -2.74235773      -0.43723172       0.98140477
C        2.67542906      -0.60929870      -1.34108561      -1.90388944       1.97867598       0.62069403
C        2.45918806       0.76249030      -1.69111461       0.46254004      -0.82283495      -0.23059529
C       -3.14649694       1.34544830       0.27792339      -3.73281213       2.62097071       2.58616007
C        0.69579306      -0.48235070       0.09578839      -0.33579798       1.18560965       1.75135290
C        0.38600306       0.81485130      -0.37189461       1.38823526       0.83317533      -0.45252052
O       -0.92375094      -0.58025670       2.03117939       1.19699981       0.46453904      -1.34092109
O       -1.97946894      -0.17616170      -0.93466261       0.47608614      -1.69059080      -0.38933571
O        0.50398506      -2.26015570       1.66628839       2.21660773       0.81296280      -2.04152882
C        0.00513106      -1.02276470       1.36018939      -1.94515895      -1.60273748       0.58865957
C       -1.95018094       0.75017030      -0.18156161       1.97722408      -0.45917032      -3.22687103
O       -0.79038394       1.49128330      -0.00430061       0.94922753      -0.36348020       0.43445359
H        0.04069206      -2.84254670       2.24060639      -1.42521223       0.13364815       1.20275994
H        1.73088906      -2.23743270      -0.16179761       1.03071054      -0.14357252       0.07897826
H        1.17636306       2.50372530      -1.58107461       0.04160090      -0.26836715       0.21398020
H        3.34048906      -1.15036070      -1.93262661       1.64290628      -1.31305710      -0.74552880
H        3.06665306       1.23422630      -2.46995161       0.28352210      -0.03021189       0.14299504
H       -2.82681194       1.94139830       1.19587839      -1.00231024      -0.01240246      -0.92923002
H       -3.75133094       2.00106630      -0.54162361       1.71547990      -1.45572312       1.87925628
H       -3.83302294       0.51308530       0.65217939       0.64754296       0.97522844      -0.59038043
21
Properties=species:S:1:pos:R:3:forces:R:3 energy=-17592.484217819405 pbc="F F F"
C        2.11213143      -0.96060475      -0.14748043       0.53060035       0.56452818      -1.18461412
C        0.99622143       1.29931225      -1.60937543       0.30424861      -1.53104056       0.33743688
C        2.64455843      -0.46918275      -1.36839843       0.77220870      -0.31782382       0.71875116
C        2.18163743       0.67038825      -2.05094443      -0.83083408      -0.55316640       0.96208385
C       -3.18782257       1.50566825       0.11421757       0.89932672       0.07945064       0.97587930
C        0.93511743      -0.40961775       0.28192357      -1.80793400       0.65110207       1.71353721
C        0.46168643       0.66562225      -0.47858943      -3.76623724       2.38679766       0.01595559
O       -0.52386057      -0.14236475       2.27693957       2.01790291      -2.91702125      -1.86694548
O       -2.07591157      -0.60191975      -0.54951743       0.57770638       1.59815792       0.29465822
O        0.29673243      -2.27968475       1.62864857       0.22859993       2.14718975      -0.41993660
C        0.15783443      -0.89607375       1.54804357      -0.94660877       1.42927094      -0.02863439
C       -1.98711657       0.57922725      -0.25813643      -0.51956086       0.32976329       0.47782560
O       -0.82246457       1.34777525      -0.16407643       0.39666375      -2.08813536      -0.06217301
H       -0.36149857      -2.58749875       2.24446157      -0.58342179      -0.21529025       0.86774338
H        2.61565443      -1.66204975       0.49528557       0.33646629      -0.83192659      -0.15339500
H        0.36145843       2.05335125      -2.13505243       0.92865907      -0.34894070       0.44491281
H        3.50683343      -1.02209475      -1.72096443       0.57217241       0.17784005      -0.37723751
H        2.71675443       1.02392225      -2.89011243       0.69010495       0.38158425      -1.33136108
H       -3.82155657       1.71281625      -0.72738443      -0.06332638       0.43542256      -1.37336247
H       -3.93343457       0.96997225       0.73160257       0.62609072      -0.13537453       0.50432084
H       -2.84920057       2.48204625       0.59800457      -0.36282765      -1.24238786      -0.51544517
21
Properties=species:S:1:pos:R:3:forces:R:3 energy=-17592.45796379725 pbc="F F F"
C        1.86542227      -1.15138830      -0.55357249       1.63259866       0.60370638      -0.65782318
C        0.94702127       1.21859670      -1.44359849       1.52433623      -2.53720489       1.92158814
C        2.59707627      -0.62152030      -1.71889649      -2.91032748       0.82684879       2.52078885
C        2.12923027       0.65343670      -2.03293849      -1.42000925       1.07573957      -1.31265721
C       -3.10395073       1.89796770       0.17467451      -0.76787122      -0.02792911       1.50210795
C        0.87118327      -0.54749830       0.23315151      -0.79036223       1.30536247      -1.50854731
C        0.33591727       0.68303670      -0.31623949      -0.60974009      -0.92124289       0.66754357
O        1.10614527      -1.97175030       2.15822951      -1.19353692       0.87813168      -0.96888293
O       -2.21325773      -0.18341930      -0.72864349       0.42007237       1.44372970       0.60451653
O       -0.92021773      -0.89764330       1.84204951       1.55809446      -1.13147327       0.37927254
C        0.39831027      -1.22527030       1.48935151      -0.40013754      -0.44475447       1.20072795
C       -2.02459373       0.89371770      -0.19144949      -0.31390916      -0.43840432      -1.12645219
O       -0.80934473       1.38305770       0.21598351       1.52780479      -0.81140027      -0.71964355
H       -1.12552673      -1.47021030       2.63268651       0.43176870       0.72097829      -0.91911735
H        2.24440527      -2.04637930      -0.14523249       0.47916220      -1.63325735       0.55106785
H        0.57964527       2.13172670      -1.72620949      -0.91535229       2.67559522      -1.31252552
H        3.36803127      -1.16499030      -2.24494349       0.32893784      -0.18939792      -0.02044557
H        2.40191227       1.29399970      -2.89196049       0.82316290      -0.62934874       0.08835961
H       -3.47940673       1.38337970       1.14207851       0.12035734       1.30620434      -0.97186504
H       -2.83224973       2.99537870       0.32075251       0.33631144      -1.47443445       0.22863570
H       -3.94997873       1.93219070      -0.53019049       0.13863923      -0.59744878      -0.14664886
21
Properties=species:S:1:pos:R:3:forces:R:3 energy=-17592.04557731081 pbc="F F F"
C        1.99477082      -1.07618014      -0.32912938       0.06061671       3.38347137      -2.66401425